 Position data for:  Ptfcc          
   
 4  atoms
 
 1  atom types
    
 0.0000    3.977    xlo xhi
 0.0000    3.977    ylo yhi
 0.0000    3.977    zlo zhi
  
 Masses
  
 1  195.084

 Atoms

 1  1 0.0    0.000000    0.000000    0.000000 
 2  1 0.0    0.000000    0.000000    1.988500 
 3  1 0.0    0.000000    1.988500    0.000000 
 4  1 0.0    0.000000    1.988500    1.988500 
