Position data for:  Ptbcc          
   
           9    atoms
           1    atom types
      0.0000        3.164    xlo xhi
      0.0000        3.164    ylo yhi
      0.0000        3.164    zlo zhi
      0.0000    0.0000    0.0000  xy xz yz
  
Masses
  
1  195.084

 Atoms

     1  1 0.0   -0.00000     0.00000     0.00000 
     2  1 0.0    0.000000    0.000000    3.164015 
     3  1 0.0    0.000000    3.164015    0.000000 
     4  1 0.0    0.000000    3.164015    3.164015 
     5  1 0.0    3.164015    0.000000    0.000000 
     6  1 0.0    3.164015    0.000000    3.164015 
     7  1 0.0    3.164015    3.164015    0.000000 
     8  1 0.0    3.164015    3.164015    3.164015 
     9  1 0.0    1.582008    1.582008    1.582008

