Position data for:  Ni             
   
        2120    atoms
           3    atom types
      0.0000       34.8327    xlo xhi
      0.0000       30.1660    ylo yhi
    -60.0000       60.0000    zlo zhi
  -17.4163    0.0000    0.0000  xy xz yz
  
Masses
  
1  58.6934
2  10.8110
3  14.0067
  
 Atoms
  
     1 1 0.0 -16.8127003  30.0620003  -0.5790230
     2 1 0.0   3.1203101   1.2291200   1.7045300
     3 1 0.0   0.5646800   2.6919799   3.7650700
     4 1 0.0 -16.7691002  29.9244003   5.8938298
     5 1 0.0   2.9747801   1.3026400   7.9989901
     6 1 0.0   0.6619330   2.5976801  10.0256004
     7 1 0.0 -16.8411999  29.9983006  12.3479996
     8 1 0.0   3.0149000   1.2648300  14.2430000
     9 1 0.0   0.5948600   2.6711400  16.4013996
    10 1 0.0 -16.8195000  30.0454998  18.6711998
    11 1 0.0 -14.3964996  30.0156994  -0.3359270
    12 1 0.0   0.5392970   1.2164800   1.6602800
    13 1 0.0   3.0787101   2.7103801   3.6779900
    14 1 0.0 -14.2896996  29.9792004   6.0136399
    15 1 0.0   0.5568170   1.2667400   7.9483199
    16 1 0.0   3.0072801   2.6882100  10.0108004
    17 1 0.0 -14.3442001  29.9811001  12.1701002
    18 1 0.0   0.5023460   1.3335000  14.3514004
    19 1 0.0   3.0193601   2.5774000  16.3799000
    20 1 0.0 -14.3590002  29.9953003  18.4102001
    21 1 0.0   1.8578200   2.0793400  -0.4055890
    22 1 0.0  -0.6875900   3.3991001   1.6663200
    23 1 0.0   4.2786002   0.5371260   3.7259300
    24 1 0.0   1.8193300   1.8821501   5.8562298
    25 1 0.0  -0.6989070   3.4965701   8.0607004
    26 1 0.0   4.2823801   0.4916160  10.0881996
    27 1 0.0   1.8476900   1.9733500  12.2132998
    28 1 0.0  -0.6908490   3.5515299  14.3710003
    29 1 0.0   4.2982898   0.4990020  16.3889999
    30 1 0.0   1.7991500   1.9144599  18.5039997
    31 1 0.0  -0.6428290   2.0079899  -0.4551810
    32 1 0.0   1.8004200   3.3653600   1.6943001
    33 1 0.0   1.8346601   0.4381930   3.7883799
    34 1 0.0  -0.6851850   2.0016301   5.8911400
    35 1 0.0   1.7109700   3.4216499   7.8422599
    36 1 0.0   1.8262000   0.4498490  10.0904999
    37 1 0.0  -0.6341570   2.0187600  12.1665001
    38 1 0.0   1.8610500   3.4440899  14.3750000
    39 1 0.0   1.8357600   0.4139630  16.3619995
    40 1 0.0  -0.7091330   1.9855601  18.6634998
    41 1 0.0 -11.8479004  29.8532009  -0.5578840
    42 1 0.0   8.0492296   1.1858600   1.5569100
    43 1 0.0   5.5593700   2.7221999   3.7641399
    44 1 0.0 -11.9366999  29.9563999   5.8633099
    45 1 0.0   7.9919100   1.3053000   7.9176602
    46 1 0.0   5.4609299   2.7808900  10.0794001
    47 1 0.0 -11.8732004  29.9698009  12.2201004
    48 1 0.0   8.1028700   1.1602600  14.3242998
    49 1 0.0   5.6117802   2.7171400  16.3556995
    50 1 0.0 -11.8641005  29.9263000  18.4491997
    51 1 0.0  -9.4709196  29.9752007  -0.4655940
    52 1 0.0   5.5204101   1.2467500   1.4827501
    53 1 0.0   7.9446101   2.6179399   3.6299200
    54 1 0.0  -9.4132204  29.9843006   5.8342500
    55 1 0.0   5.4771700   1.2340000   7.9360600
    56 1 0.0   7.9684100   2.7946999  10.0441999
    57 1 0.0  -9.4134502  30.0365009  12.2161999
    58 1 0.0   5.5111699   1.1320500  14.2702999
    59 1 0.0   8.2222300   2.6163099  16.3223000
    60 1 0.0  -9.3989296  29.9125996  18.5869999
    61 1 0.0   6.7986498   1.9678500  -0.5459400
    62 1 0.0   4.2803702   3.4569299   1.6220599
    63 1 0.0   9.2162304   0.5559640   3.6538401
    64 1 0.0   6.7936902   1.9841400   5.8975101
    65 1 0.0   4.2756100   3.3983700   7.9162698
    66 1 0.0   9.2248697   0.5745820  10.0654001
    67 1 0.0   6.8374901   1.9599600  12.2721996
    68 1 0.0   4.3391900   3.3323100  14.4041004
    69 1 0.0   9.2636299   0.3820190  16.4647999
    70 1 0.0   6.8575101   1.8548900  18.3771000
    71 1 0.0   4.3795600   1.9403000  -0.5316380
    72 1 0.0   6.7233200   3.3539801   1.6015900
    73 1 0.0   6.6748099   0.5574640   3.7001200
    74 1 0.0   4.2466202   1.9810801   5.8151999
    75 1 0.0   6.7187200   3.3422999   7.9610500
    76 1 0.0   6.7396002   0.6504500  10.1141005
    77 1 0.0   4.2657599   1.9680200  12.2325001
    78 1 0.0   6.8082700   3.3421099  14.3202000
    79 1 0.0   6.7922201   0.5369050  16.3274002
    80 1 0.0   4.3252501   1.9853600  18.4214993
    81 1 0.0  -6.9590302  29.9824009  -0.5065530
    82 1 0.0  13.0741997   1.2384900   1.5621099
    83 1 0.0  10.4667997   2.6561999   3.7547400
    84 1 0.0  -6.9468398  29.9104996   5.7708702
    85 1 0.0  13.0102997   1.2510800   7.9919500
    86 1 0.0  10.4792004   2.7071199  10.1318998
    87 1 0.0  -6.8860698  29.9333992  12.1883001
    88 1 0.0  13.0763998   1.2110900  14.3212004
    89 1 0.0  10.5015001   2.5649500  16.4228001
    90 1 0.0  -6.8660998  29.9020004  18.5426998
    91 1 0.0  -4.3028102  29.8593998  -0.4030300
    92 1 0.0  10.5476999   1.2426500   1.6285400
    93 1 0.0  12.9605999   2.6363299   3.8363299
    94 1 0.0  -4.4990101  29.9048996   5.9477601
    95 1 0.0  10.4438000   1.2317100   7.8942099
    96 1 0.0  13.0061998   2.6898301  10.2515001
    97 1 0.0  -4.4690099  29.9636002  12.0606003
    98 1 0.0  10.4125996   1.1849000  14.3104000
    99 1 0.0  13.0186996   2.6373100  16.4909992
   100 1 0.0  -4.3174300  29.8057003  18.3617992
   101 1 0.0  11.7706003   1.8188699  -0.5055340
   102 1 0.0   9.3125000   3.3509200   1.6564000
   103 1 0.0  14.2660999   0.6031030   3.7685101
   104 1 0.0  11.7200003   1.9957900   5.9207201
   105 1 0.0   9.2571402   3.3093801   7.9945402
   106 1 0.0  14.2370005   0.6033090  10.0771999
   107 1 0.0  11.6887999   1.9082000  12.2866001
   108 1 0.0   9.3357401   3.4119999  14.2596998
   109 1 0.0  14.2805996   0.4009120  16.3486996
   110 1 0.0  11.7034998   1.9702899  18.6679993
   111 1 0.0   9.3522596   1.9921300  -0.6062440
   112 1 0.0  11.7586002   3.3307300   1.7065400
   113 1 0.0  11.8213997   0.4395330   3.7439699
   114 1 0.0   9.2647305   1.9631000   5.8117700
   115 1 0.0  11.6765003   3.3740201   8.0269203
   116 1 0.0  11.6662998   0.5787550  10.0407000
   117 1 0.0   9.2786703   2.0809400  12.1752996
   118 1 0.0  11.8231001   3.2748301  14.3701000
   119 1 0.0  11.7573996   0.5117890  16.4165993
   120 1 0.0   9.3014402   1.9413700  18.7262001
   121 1 0.0  -1.8407400  30.0421009  -0.3389750
   122 1 0.0  18.0496998   1.1766500   1.6916600
   123 1 0.0  15.4357004   2.7430201   3.7866399
   124 1 0.0  -2.0084701  29.9720993   6.0465398
   125 1 0.0  17.9631996   1.1811301   7.9862199
   126 1 0.0  15.5125999   2.6159501  10.1869001
   127 1 0.0  -2.0311000  30.0440998  12.1532001
   128 1 0.0  17.9372997   1.3198900  14.4600000
   129 1 0.0  15.4995003   2.7272401  16.5060005
   130 1 0.0  -1.8568799  29.8959999  18.4206009
   131 1 0.0   0.6300760  29.9613991  -0.3584600
   132 1 0.0  15.4972000   1.3044600   1.6867300
   133 1 0.0  17.9972000   2.6134901   3.7688501
   134 1 0.0   0.5688230  30.0093002   5.8302002
   135 1 0.0  15.4490004   1.2315600   8.0650396
   136 1 0.0  17.9300003   2.6435201  10.1855001
   137 1 0.0   0.3949180  29.9855003  12.2500000
   138 1 0.0  15.4540997   1.1454999  14.2853003
   139 1 0.0  17.9459991   2.6299901  16.6207008
   140 1 0.0   0.5214670  29.9613991  18.5617008
   141 1 0.0  16.7830009   1.9915000  -0.3766030
   142 1 0.0  14.2398996   3.3269999   1.7326601
   143 1 0.0  19.2535000   0.3954730   3.7990999
   144 1 0.0  16.6788998   1.8940600   5.8834901
   145 1 0.0  14.1372004   3.4246500   8.0651598
   146 1 0.0  19.2728996   0.4717380  10.2388000
   147 1 0.0  16.7043991   1.9953600  12.3199997
   148 1 0.0  14.3361998   3.4831500  14.3771000
   149 1 0.0  19.1790009   0.5566040  16.5252991
   150 1 0.0  16.6882000   1.8572900  18.8314991
   151 1 0.0  14.2418003   1.9867300  -0.5479980
   152 1 0.0  16.8012009   3.4154201   1.7084000
   153 1 0.0  16.6903000   0.4996990   3.8385899
   154 1 0.0  14.2061996   1.8909000   5.9818802
   155 1 0.0  16.7509003   3.3502100   8.0335703
   156 1 0.0  16.7126999   0.5224040  10.1136999
   157 1 0.0  14.1771002   1.9381599  12.2370005
   158 1 0.0  16.7402000   3.4555299  14.4470997
   159 1 0.0  16.7017002   0.4859650  16.3820992
   160 1 0.0  14.2386999   1.7793500  18.5590000
   161 1 0.0   3.1492000  29.9433002  -0.4891820
   162 1 0.0  22.9992008   1.3127700   1.8611000
   163 1 0.0  20.4937000   2.5988801   3.8469901
   164 1 0.0   3.0185499  29.9899998   5.9440899
   165 1 0.0  22.9426003   1.2774200   8.1611204
   166 1 0.0  20.4899998   2.6554999  10.2111998
   167 1 0.0   2.9690001  29.9848003  12.3565998
   168 1 0.0  22.8591003   1.2733700  14.4617004
   169 1 0.0  20.5193996   2.6436701  16.5223007
   170 1 0.0   3.0623300  29.9405994  18.7842999
   171 1 0.0   5.5487900  29.9092999  -0.3140220
   172 1 0.0  20.6226997   1.1546201   1.7035000
   173 1 0.0  22.9335003   2.6324601   3.9127100
   174 1 0.0   5.5493598  29.9452000   6.0188098
   175 1 0.0  20.5221996   1.1607800   7.9885402
   176 1 0.0  22.9557991   2.6591499  10.3334999
   177 1 0.0   5.4689102  29.9629002  12.3950005
   178 1 0.0  20.4267006   1.2154000  14.4411001
   179 1 0.0  22.9424000   2.7688200  16.5995998
   180 1 0.0   5.4820299  29.9519005  18.7667007
   181 1 0.0  21.7632999   2.0051100  -0.3354020
   182 1 0.0  19.2607002   3.2653100   1.6097000
   183 1 0.0  24.1755009   0.4941460   3.9570100
   184 1 0.0  21.6746998   1.9419100   5.9934802
   185 1 0.0  19.2369995   3.2995601   8.0484400
   186 1 0.0  24.2472992   0.5705520  10.3580999
   187 1 0.0  21.6973000   1.9134901  12.4254999
   188 1 0.0  19.2129993   3.3219099  14.4537001
   189 1 0.0  24.1308002   0.5598910  16.5632992
   190 1 0.0  21.7084999   1.9728301  18.7404995
   191 1 0.0  19.2084999   1.8572299  -0.5336130
   192 1 0.0  21.8167992   3.3304999   1.7438800
   193 1 0.0  21.7453995   0.3965890   3.9422100
   194 1 0.0  19.1958008   1.9396501   5.8738098
   195 1 0.0  21.6581001   3.3883500   8.1158800
   196 1 0.0  21.7644997   0.4739650  10.1987000
   197 1 0.0  19.2933998   1.9738600  12.3291998
   198 1 0.0  21.6644993   3.3715501  14.4546003
   199 1 0.0  21.6791000   0.6181150  16.6133995
   200 1 0.0  19.1798992   1.9167500  18.8267994
   201 1 0.0   8.0762300  29.7604008  -0.2895520
   202 1 0.0  27.9643002   1.2057000   1.6571000
   203 1 0.0  25.3712006   2.6462200   3.8596001
   204 1 0.0   7.9965401  29.9307003   6.0758600
   205 1 0.0  27.9009991   1.1546600   8.0678196
   206 1 0.0  25.4965000   2.7364600  10.1915998
   207 1 0.0   8.0441303  29.8253994  12.4175997
   208 1 0.0  27.9549007   1.2026000  14.4125996
   209 1 0.0  25.4321003   2.6527500  16.6068001
   210 1 0.0   7.9605799  29.9640007  18.6991997
   211 1 0.0  10.5355997  29.9444008  -0.2716940
   212 1 0.0  25.4685001   1.2568600   1.7675000
   213 1 0.0  27.9566994   2.6580300   3.8714700
   214 1 0.0  10.5046997  29.9025002   6.1416898
   215 1 0.0  25.4801998   1.2369800   8.2011099
   216 1 0.0  27.9738007   2.6963301  10.1948004
   217 1 0.0  10.4466000  29.9564991  12.3913002
   218 1 0.0  25.4699993   1.2045200  14.5448999
   219 1 0.0  27.9424992   2.7825401  16.6275997
   220 1 0.0  10.5713997  30.1222992  18.5976009
   221 1 0.0  26.6457996   1.8143600  -0.5536850
   222 1 0.0  24.2800999   3.3617899   1.7292700
   223 1 0.0  29.2178993   0.5360450   3.8324399
   224 1 0.0  26.6438999   1.9215100   6.0265598
   225 1 0.0  24.2399006   3.4486001   8.0550003
   226 1 0.0  29.1812000   0.4589770  10.2510996
   227 1 0.0  26.6737003   1.9107000  12.3886995
   228 1 0.0  24.2467995   3.2793601  14.4987001
   229 1 0.0  29.2434006   0.5124030  16.5039005
   230 1 0.0  26.6735001   2.0226300  18.6830997
   231 1 0.0  24.2276993   1.8789901  -0.3679270
   232 1 0.0  26.7038002   3.3430099   1.8187701
   233 1 0.0  26.7063999   0.5011050   3.9258001
   234 1 0.0  24.1786995   1.8980300   5.9727201
   235 1 0.0  26.7422009   3.3957701   8.1731596
   236 1 0.0  26.7381992   0.5126760  10.2784996
   237 1 0.0  24.2210999   1.9364500  12.4893999
   238 1 0.0  26.7334003   3.3188701  14.4839001
   239 1 0.0  26.7266998   0.5200990  16.5893993
   240 1 0.0  24.1273994   1.9114500  18.7346992
   241 1 0.0  13.0832005  29.9426994  -0.4604240
   242 1 0.0  32.9062004   1.2547400   1.6459399
   243 1 0.0  30.4326992   2.7356601   3.8807099
   244 1 0.0  13.0775995  29.9118996   5.9620199
   245 1 0.0  32.9393997   1.2423600   7.9488602
   246 1 0.0  30.4673996   2.6317401  10.0756998
   247 1 0.0  13.0447998  29.9585991  12.2272997
   248 1 0.0  32.9244003   1.2095300  14.3529997
   249 1 0.0  30.4780998   2.7226200  16.5489006
   250 1 0.0  13.1202002  30.1100006  18.6212006
   251 1 0.0  15.6250000  29.9664001  -0.2892770
   252 1 0.0  30.3913994   1.2636800   1.6165299
   253 1 0.0  32.8833008   2.7082000   3.8155100
   254 1 0.0  15.4990997  29.9461994   5.8715301
   255 1 0.0  30.3959999   1.2374300   7.9746099
   256 1 0.0  32.9113998   2.5717101  10.1342001
   257 1 0.0  15.5942001  29.9918003  12.2265997
   258 1 0.0  30.4461002   1.1487700  14.4006004
   259 1 0.0  32.9247017   2.7325301  16.4976006
   260 1 0.0  15.5914001  30.0021992  18.5949993
   261 1 0.0  31.6634007   1.8137300  -0.4412770
   262 1 0.0  29.2544994   3.4138601   1.7427400
   263 1 0.0  34.0730019   0.5447870   3.7875800
   264 1 0.0  31.6348000   1.9744400   5.8378301
   265 1 0.0  29.2397003   3.2835000   8.0613699
   266 1 0.0  34.1811981   0.4461670  10.1556997
   267 1 0.0  31.6679993   1.8939700  12.2826996
   268 1 0.0  29.2157993   3.2821801  14.4322996
   269 1 0.0  34.2383995   0.5285380  16.4971008
   270 1 0.0  31.7194004   2.0543201  18.7516003
   271 1 0.0  29.2189999   1.8865900  -0.3372210
   272 1 0.0  31.6713009   3.4075501   1.8361700
   273 1 0.0  31.6044006   0.5710250   3.7478399
   274 1 0.0  29.1387005   1.9450901   5.8855700
   275 1 0.0  31.6527004   3.3568299   7.9621000
   276 1 0.0  31.6329994   0.5062130  10.0644999
   277 1 0.0  29.2243004   1.8780800  12.2720003
   278 1 0.0  31.6783009   3.3729300  14.4306002
   279 1 0.0  31.7626991   0.6129000  16.4801998
   280 1 0.0  29.1753006   1.9818400  18.7210007
   281 1 0.0  -1.9792000   4.0600200  -0.4346590
   282 1 0.0   0.6253400   5.4741802   1.5213701
   283 1 0.0  -1.9365000   7.0279198   3.8974900
   284 1 0.0  -1.9950300   4.1285200   6.0046601
   285 1 0.0   0.5622870   5.5039802   7.9859900
   286 1 0.0  -1.8617600   6.9412498  10.2054996
   287 1 0.0  -1.8943501   4.0862398  12.1985998
   288 1 0.0   0.6203050   5.6001000  14.4210997
   289 1 0.0  -1.8916800   7.0179200  16.4074001
   290 1 0.0  -1.8696400   4.0865998  18.7938004
   291 1 0.0   0.5763350   4.0599699  -0.5411340
   292 1 0.0  -1.9836299   5.5477300   1.6619300
   293 1 0.0   0.5635520   6.9622698   3.7649100
   294 1 0.0   0.5267290   4.1010799   5.8351698
   295 1 0.0  -1.8888400   5.6204200   8.1194401
   296 1 0.0   0.4980250   6.9136701  10.1389999
   297 1 0.0   0.5922970   4.0964799  12.1731005
   298 1 0.0  -1.9617500   5.5738502  14.2800999
   299 1 0.0   0.6917800   6.8711600  16.5639992
   300 1 0.0   0.4788630   4.1336498  18.5328007
   301 1 0.0  -0.7401150   6.2725801  -0.4467480
   302 1 0.0  -3.1252501   7.7517500   1.7703900
   303 1 0.0   1.8025200   4.8468299   3.7164700
   304 1 0.0  -0.7420510   6.3693800   6.0572801
   305 1 0.0  -3.2524600   7.6675501   8.1030703
   306 1 0.0   1.7855901   4.7473202  10.0326996
   307 1 0.0  -0.6112970   6.2229099  12.2514000
   308 1 0.0  -3.1075499   7.7068601  14.4101000
   309 1 0.0   1.8762500   4.7484999  16.5167007
   310 1 0.0  -0.6671230   6.2846398  18.8020000
   311 1 0.0  -3.2514000   6.1523099  -0.3822880
   312 1 0.0  -0.7509000   7.6423502   1.7110300
   313 1 0.0  -0.6759920   4.8558798   3.7438300
   314 1 0.0  -3.1768401   6.3462400   5.9362202
   315 1 0.0  -0.6722380   7.7743802   8.1333704
   316 1 0.0  -0.7178540   4.7467599  10.1335001
   317 1 0.0  -3.2171400   6.2776499  12.2496004
   318 1 0.0  -0.5693870   7.6979699  14.3431997
   319 1 0.0  -0.6496630   4.8242202  16.5951996
   320 1 0.0  -3.1099000   6.3878999  18.5198994
   321 1 0.0   3.0451400   4.1456599  -0.4814170
   322 1 0.0   5.6279402   5.5074601   1.7354900
   323 1 0.0   3.0766499   6.9882498   3.7725201
   324 1 0.0   3.0590301   4.1348801   5.8977399
   325 1 0.0   5.5186000   5.5060101   8.0491896
   326 1 0.0   2.9929399   6.9253101  10.0532999
   327 1 0.0   3.1359999   4.0877500  12.3573999
   328 1 0.0   5.6399002   5.5123501  14.4756002
   329 1 0.0   3.1776199   6.9949498  16.5249996
   330 1 0.0   3.1526101   4.0883198  18.5844002
   331 1 0.0   5.5246401   4.1989398  -0.6123210
   332 1 0.0   2.9898701   5.5406799   1.6861000
   333 1 0.0   5.6336098   6.9871001   3.8485401
   334 1 0.0   5.5074902   4.0699000   5.8669300
   335 1 0.0   3.0176799   5.6205502   7.9046402
   336 1 0.0   5.5101700   6.9861002  10.1864996
   337 1 0.0   5.6051502   4.1150599  12.2107000
   338 1 0.0   3.1129799   5.5479999  14.5501003
   339 1 0.0   5.5996199   6.9671001  16.6263008
   340 1 0.0   5.7209501   4.0042701  18.5167007
   341 1 0.0   4.3754501   6.2164798  -0.3603980
   342 1 0.0   1.7937100   7.6796498   1.7331500
   343 1 0.0   6.8258100   4.8503599   3.8288701
   344 1 0.0   4.3287702   6.2036600   5.7946801
   345 1 0.0   1.7382400   7.6775098   7.8934999
   346 1 0.0   6.7520199   4.8948002  10.1211996
   347 1 0.0   4.3066301   6.2451801  12.3167000
   348 1 0.0   1.8804100   7.6812401  14.3762999
   349 1 0.0   6.9639001   4.7681799  16.4344006
   350 1 0.0   4.4817300   6.1475301  18.7817993
   351 1 0.0   1.7832000   6.2925401  -0.5104550
   352 1 0.0   4.3140898   7.7588201   1.6966799
   353 1 0.0   4.2647800   4.8112898   3.6955600
   354 1 0.0   1.6985300   6.3002300   5.8567100
   355 1 0.0   4.2766500   7.7709398   8.0557404
   356 1 0.0   4.2697601   4.8675499  10.1840000
   357 1 0.0   1.8112800   6.1885400  12.2820997
   358 1 0.0   4.3923101   7.6275802  14.4651003
   359 1 0.0   4.4050899   4.7592101  16.4722996
   360 1 0.0   1.9611400   6.1696200  18.6529007
   361 1 0.0   8.0630102   4.1469498  -0.3717850
   362 1 0.0  10.5247002   5.4759798   1.7031300
   363 1 0.0   7.9755902   7.0159502   3.8110900
   364 1 0.0   7.9653902   4.0463500   5.8535399
   365 1 0.0  10.5038004   5.5215998   7.9522901
   366 1 0.0   8.0337896   6.9433699  10.1815004
   367 1 0.0   8.1339598   4.1335301  12.1653996
   368 1 0.0  10.6399002   5.4568200  14.2810001
   369 1 0.0   8.0330400   6.9450598  16.3738995
   370 1 0.0   8.0811901   4.2141500  18.4832001
   371 1 0.0  10.5789003   4.1475201  -0.4227290
   372 1 0.0   8.0580301   5.4791498   1.7154400
   373 1 0.0  10.3858004   7.0055199   3.6280999
   374 1 0.0  10.4531002   4.1493402   5.9140301
   375 1 0.0   8.0613699   5.5555902   8.0055599
   376 1 0.0  10.5637999   6.9434500  10.1949997
   377 1 0.0  10.5632000   4.2080002  12.1913004
   378 1 0.0   8.1457701   5.4351301  14.3198996
   379 1 0.0  10.4754000   7.0188599  16.4076004
   380 1 0.0  10.5211000   4.1329799  18.4822006
   381 1 0.0   9.2331896   6.2005401  -0.4826630
   382 1 0.0   6.8238902   7.6423602   1.6642801
   383 1 0.0  11.7114000   4.7556500   3.8818300
   384 1 0.0   9.2961998   6.2113099   5.8877401
   385 1 0.0   6.7680602   7.6942601   8.1412497
   386 1 0.0  11.7976999   4.8416100  10.0868998
   387 1 0.0   9.3582001   6.3459702  12.2349997
   388 1 0.0   6.8180199   7.6627998  14.3449001
   389 1 0.0  11.8720999   4.8123298  16.4293995
   390 1 0.0   9.2677698   6.3470302  18.6868000
   391 1 0.0   6.7805400   6.2658701  -0.3926040
   392 1 0.0   9.2173996   7.7152100   1.5899800
   393 1 0.0   9.2445803   4.7973700   3.7731700
   394 1 0.0   6.7983599   6.2286801   5.9867101
   395 1 0.0   9.3286104   7.5840502   8.0350504
   396 1 0.0   9.2718201   4.8111300  10.1599998
   397 1 0.0   6.8199401   6.2697701  12.3393002
   398 1 0.0   9.2469902   7.6001101  14.3078003
   399 1 0.0   9.3559999   4.8187399  16.4265995
   400 1 0.0   6.8152299   6.3054800  18.5830002
   401 1 0.0  13.0124998   4.0505300  -0.3906980
   402 1 0.0  15.4659004   5.5562501   1.6926900
   403 1 0.0  12.8683996   7.0594602   3.7657399
   404 1 0.0  12.9535999   4.0869999   5.9263401
   405 1 0.0  15.4315996   5.5394902   8.0297203
   406 1 0.0  12.9483995   7.0425801  10.0384998
   407 1 0.0  12.9742002   4.1525998  12.3324003
   408 1 0.0  15.5492001   5.7617998  14.4236002
   409 1 0.0  12.9945002   6.9566498  16.3927002
   410 1 0.0  12.9539003   4.1032600  18.4564991
   411 1 0.0  15.5431995   4.1150298  -0.3908290
   412 1 0.0  12.9702997   5.5306301   1.6294600
   413 1 0.0  15.4721003   7.0132399   3.8525300
   414 1 0.0  15.4308004   4.0691500   5.8797998
   415 1 0.0  12.9694996   5.6478601   7.9243398
   416 1 0.0  15.4597998   6.9477401  10.0943003
   417 1 0.0  15.5440998   4.1453400  12.2578001
   418 1 0.0  13.0502005   5.5033598  14.4047003
   419 1 0.0  15.5812998   7.0170698  16.5226002
   420 1 0.0  15.4825001   4.1130300  18.5301991
   421 1 0.0  14.2650003   6.1831799  -0.4494220
   422 1 0.0  11.6213999   7.6550398   1.6947500
   423 1 0.0  16.6921005   4.8053498   3.7703199
   424 1 0.0  14.2382002   6.2484498   5.9091601
   425 1 0.0  11.7356997   7.7550802   7.8729000
   426 1 0.0  16.7439003   4.7930398  10.1456003
   427 1 0.0  14.2284002   6.2760201  12.2045002
   428 1 0.0  11.8320999   7.8011899  14.2995005
   429 1 0.0  16.8841000   4.8651500  16.4654007
   430 1 0.0  14.2159996   6.2906499  18.4913006
   431 1 0.0  11.7327003   6.2917299  -0.4435460
   432 1 0.0  14.2093000   7.7463102   1.6868300
   433 1 0.0  14.0580997   4.8633800   3.8322301
   434 1 0.0  11.7518997   6.2469101   5.8681302
   435 1 0.0  14.2974005   7.7448201   7.9734101
   436 1 0.0  14.2308998   4.8328099  10.1096001
   437 1 0.0  11.7722998   6.3093500  12.2514000
   438 1 0.0  14.2566996   7.6760898  14.4085999
   439 1 0.0  14.3494997   4.7822299  16.4839993
   440 1 0.0  11.6889000   6.2374701  18.4622002
   441 1 0.0  18.0676994   4.0449901  -0.4911780
   442 1 0.0  20.5235004   5.4095101   1.7304500
   443 1 0.0  17.9312000   7.0015101   3.8067000
   444 1 0.0  17.9218998   4.0090899   5.8785000
   445 1 0.0  20.4220009   5.4907098   7.9988399
   446 1 0.0  17.9316998   7.0447302  10.1693001
   447 1 0.0  18.0597992   4.0231700  12.2790003
   448 1 0.0  20.4575996   5.5548401  14.4243002
   449 1 0.0  18.0070000   6.9980001  16.5041008
   450 1 0.0  17.9263000   4.0768800  18.7591000
   451 1 0.0  20.5716991   4.1685901  -0.4190490
   452 1 0.0  18.0093994   5.5196900   1.6694300
   453 1 0.0  20.3661995   6.9177899   3.7923901
   454 1 0.0  20.5217991   4.0685101   5.9035802
   455 1 0.0  17.9228001   5.5572600   8.0836897
   456 1 0.0  20.4864998   6.9700999  10.2006998
   457 1 0.0  20.5436001   4.1588898  12.3516998
   458 1 0.0  18.0452995   5.5039701  14.4490995
   459 1 0.0  20.4722996   6.9530101  16.4612007
   460 1 0.0  20.3771000   4.0887599  18.7992001
   461 1 0.0  19.2807999   6.1929402  -0.3979250
   462 1 0.0  16.7297001   7.6752801   1.6655000
   463 1 0.0  21.6770992   4.7427502   3.8898799
   464 1 0.0  19.2000008   6.2421498   5.9942899
   465 1 0.0  16.7628002   7.7800202   8.0329199
   466 1 0.0  21.5818005   4.8480401  10.1745005
   467 1 0.0  19.1781998   6.3422098  12.2446003
   468 1 0.0  16.6879997   7.6869702  14.3275003
   469 1 0.0  21.6550999   4.8725100  16.4993992
   470 1 0.0  19.2313004   6.2509799  18.5611992
   471 1 0.0  16.7579002   6.3098602  -0.4892090
   472 1 0.0  19.1826000   7.6974401   1.7386900
   473 1 0.0  19.1653996   4.7027202   3.8521600
   474 1 0.0  16.7136002   6.2694602   5.8589201
   475 1 0.0  19.1961994   7.7709799   8.0127497
   476 1 0.0  19.2483006   4.8624001  10.1112003
   477 1 0.0  16.7796001   6.1955400  12.2559996
   478 1 0.0  19.2420998   7.7018600  14.4084997
   479 1 0.0  19.2346001   4.7541399  16.5990009
   480 1 0.0  16.7001991   6.2638202  18.6679993
   481 1 0.0  22.9855995   4.0427999  -0.2093700
   482 1 0.0  25.4946995   5.5239401   1.7901400
   483 1 0.0  22.9824009   6.9031301   3.8863001
   484 1 0.0  23.0009003   4.1894999   6.0187702
   485 1 0.0  25.4685001   5.5549202   7.9787998
   486 1 0.0  22.9582996   6.9832301  10.1801996
   487 1 0.0  22.9831009   4.0238800  12.3500996
   488 1 0.0  25.4433994   5.3787298  14.3795996
   489 1 0.0  22.8668003   7.0334601  16.4993992
   490 1 0.0  22.9204998   4.1186700  18.7987995
   491 1 0.0  25.5354996   4.0479102  -0.3580320
   492 1 0.0  23.0393009   5.4505301   1.8406000
   493 1 0.0  25.4023991   6.9507699   3.9291301
   494 1 0.0  25.5202999   4.0611100   5.9508801
   495 1 0.0  22.8752995   5.5862899   8.0963802
   496 1 0.0  25.5235996   7.0160098  10.1575003
   497 1 0.0  25.4535999   4.1037002  12.3198004
   498 1 0.0  22.9347000   5.5237699  14.3889999
   499 1 0.0  25.3829002   6.9622402  16.5697002
   500 1 0.0  25.3603001   4.1509700  18.7105999
   501 1 0.0  24.3369007   6.1744699  -0.3040240
   502 1 0.0  21.7269001   7.6903501   1.7540100
   503 1 0.0  26.6809998   4.7951102   3.8579199
   504 1 0.0  24.3271999   6.2393098   5.9449701
   505 1 0.0  21.6933002   7.7262602   8.0703602
   506 1 0.0  26.7677994   4.8636098  10.2690001
   507 1 0.0  24.1732006   6.3111801  12.2896996
   508 1 0.0  21.6138992   7.6970501  14.3289003
   509 1 0.0  26.6294994   4.8494101  16.5925999
   510 1 0.0  24.0729008   6.2926102  18.6222000
   511 1 0.0  21.8446999   6.1838999  -0.3533280
   512 1 0.0  24.2094002   7.6808801   1.7635601
   513 1 0.0  24.2852001   4.8012199   3.8563299
   514 1 0.0  21.6688995   6.2791100   5.9524999
   515 1 0.0  24.2047997   7.6976700   8.1298103
   516 1 0.0  24.1627998   4.8453898  10.1749001
   517 1 0.0  21.7091007   6.2659998  12.3058004
   518 1 0.0  24.1648998   7.6111202  14.4792995
   519 1 0.0  24.1520996   4.8917298  16.4645004
   520 1 0.0  21.6432991   6.3068600  18.6623993
   521 1 0.0  27.8929996   3.9286301  -0.2162610
   522 1 0.0  30.4069996   5.5978999   1.6699600
   523 1 0.0  27.8792000   7.0920601   3.7599499
   524 1 0.0  27.8833008   4.0992699   6.0044999
   525 1 0.0  30.4547997   5.4765501   8.0470600
   526 1 0.0  27.9393997   6.9619598  10.2159996
   527 1 0.0  27.9319992   4.0831399  12.3403997
   528 1 0.0  30.4050007   5.5064702  14.3808002
   529 1 0.0  27.8582993   6.8694201  16.6261005
   530 1 0.0  27.9172001   4.1146102  18.7537003
   531 1 0.0  30.4267006   3.9430201  -0.3260570
   532 1 0.0  28.0079002   5.5162802   1.7649500
   533 1 0.0  30.3962002   6.9908900   3.8562901
   534 1 0.0  30.3703995   4.1756201   5.9271002
   535 1 0.0  27.9522991   5.4568200   8.1633701
   536 1 0.0  30.3903999   6.9785500  10.1666002
   537 1 0.0  30.3992004   4.0794702  12.2083998
   538 1 0.0  27.9055996   5.4972501  14.5236998
   539 1 0.0  30.3360004   6.9626598  16.4955006
   540 1 0.0  30.4691010   4.1887298  18.6494999
   541 1 0.0  29.1700001   6.1663899  -0.4987360
   542 1 0.0  26.6315002   7.6914201   1.6798000
   543 1 0.0  31.6177006   4.8486199   3.7881100
   544 1 0.0  29.1203003   6.3199701   5.9169698
   545 1 0.0  26.6725998   7.6852298   8.1487904
   546 1 0.0  31.5914993   4.8257399  10.2006998
   547 1 0.0  29.1427002   6.2436900  12.2188997
   548 1 0.0  26.6742001   7.6893301  14.4811001
   549 1 0.0  31.6417999   4.8979402  16.4090004
   550 1 0.0  29.0963993   6.2533302  18.7779007
   551 1 0.0  26.7772007   6.1542001  -0.4041140
   552 1 0.0  29.1679001   7.6626000   1.7454400
   553 1 0.0  29.1958008   4.8451400   3.8715601
   554 1 0.0  26.7247009   6.2762899   5.9827499
   555 1 0.0  29.1119995   7.6355000   8.0121002
   556 1 0.0  29.2590008   4.8052602  10.1543999
   557 1 0.0  26.7346001   6.3532300  12.3887997
   558 1 0.0  29.0587006   7.6333299  14.3106003
   559 1 0.0  29.1968002   4.8210502  16.5373993
   560 1 0.0  26.5800991   6.2470398  18.7830009
   561 1 0.0  -4.4406199   8.2746801  -0.3271260
   562 1 0.0  -1.8775800   9.8774796   1.7005301
   563 1 0.0  -4.3919601  11.2693996   3.8247700
   564 1 0.0  -4.4587998   8.5279703   5.9307299
   565 1 0.0  -1.9631799   9.8744497   8.1573601
   566 1 0.0  -4.3371301  11.2912998  10.2336998
   567 1 0.0  -4.3912802   8.4546700  12.4354000
   568 1 0.0  -1.8738800   9.7653198  14.4137001
   569 1 0.0  -4.3491101  11.1894999  16.6576004
   570 1 0.0  -4.4602799   8.4265604  18.5666008
   571 1 0.0  -1.9988500   8.4075298  -0.4018120
   572 1 0.0  -4.3784299   9.9144297   1.7969600
   573 1 0.0  -1.9030000  11.2744999   3.8379300
   574 1 0.0  -1.9513201   8.4765902   6.0619302
   575 1 0.0  -4.4524002   9.8738499   8.1589899
   576 1 0.0  -1.9233299  11.2840004  10.1672001
   577 1 0.0  -1.8511900   8.2864904  12.2531996
   578 1 0.0  -4.3682399   9.8172798  14.4876003
   579 1 0.0  -1.8626300  11.2741003  16.5520000
   580 1 0.0  -1.7978500   8.4287901  18.6203003
   581 1 0.0  -3.0667500  10.6201000  -0.3541090
   582 1 0.0  -5.6244998  12.0246000   1.8163100
   583 1 0.0  -0.6316820   9.1974401   3.8201799
   584 1 0.0  -3.1454501  10.6605997   6.0611401
   585 1 0.0  -5.6603699  12.0535002   8.1136198
   586 1 0.0  -0.6423620   9.1886997  10.1947002
   587 1 0.0  -3.0473399  10.5166998  12.3368998
   588 1 0.0  -5.5934901  11.9505997  14.4077997
   589 1 0.0  -0.5505030   9.0287304  16.4843006
   590 1 0.0  -3.1168101  10.5903997  18.7707005
   591 1 0.0  -5.4820700  10.5509996  -0.3426750
   592 1 0.0  -3.1978099  11.9772997   1.7548200
   593 1 0.0  -3.0733299   9.1320801   3.8399200
   594 1 0.0  -5.6718998  10.6141996   5.9662199
   595 1 0.0  -3.2419600  12.0892000   8.1643801
   596 1 0.0  -3.1420400   9.0841103  10.2791004
   597 1 0.0  -5.5781498  10.5370998  12.2617998
   598 1 0.0  -3.1446300  11.9324999  14.4914999
   599 1 0.0  -3.1130199   9.0782099  16.5643997
   600 1 0.0  -5.7230902  10.5377998  18.5312004
   601 1 0.0   0.5325140   8.4005499  -0.2147010
   602 1 0.0   3.0936699   9.8734398   1.6936300
   603 1 0.0   0.6190200  11.2943001   3.9633801
   604 1 0.0   0.5541260   8.5478096   5.7951698
   605 1 0.0   2.9331400   9.8132496   7.8828602
   606 1 0.0   0.5797050  11.2577000  10.1554003